[Molden Format]
made by pyscf v[1.3b]
[Atoms] (AU)
H   1   1     0.00000000000000     0.00000000000000     0.00000000000000
H   2   1     0.00000000000000     0.00000000000000     1.88972612456506
H   3   1     0.00000000000000     0.00000000000000     3.77945224913012
H   4   1     0.00000000000000     0.00000000000000     5.66917837369519
H   5   1     0.00000000000000     0.00000000000000     7.55890449826025
H   6   1     0.00000000000000     0.00000000000000     9.44863062282531
[GTO]
1 0
 s    3 1.00
            3.42525091    0.15432897070298
            0.62391373    0.53532814243847
             0.1688554    0.44463454202535

2 0
 s    3 1.00
            3.42525091    0.15432897070298
            0.62391373    0.53532814243847
             0.1688554    0.44463454202535

3 0
 s    3 1.00
            3.42525091    0.15432897070298
            0.62391373    0.53532814243847
             0.1688554    0.44463454202535

4 0
 s    3 1.00
            3.42525091    0.15432897070298
            0.62391373    0.53532814243847
             0.1688554    0.44463454202535

5 0
 s    3 1.00
            3.42525091    0.15432897070298
            0.62391373    0.53532814243847
             0.1688554    0.44463454202535

6 0
 s    3 1.00
            3.42525091    0.15432897070298
            0.62391373    0.53532814243847
             0.1688554    0.44463454202535

[5d]
[9g]

[MO]
 Sym= A
 Ene=               0
 Spin= Alpha
 Occup=    1.00000
   1        1.121423611461
   2     -0.32797416880703
   3     0.061522613349348
   4    -0.010762270706592
   5     0.002174582741888
   6    -0.00044994076902616
 Sym= A
 Ene=               1
 Spin= Alpha
 Occup=    1.00000
   1     -0.32797416880703
   2       1.2648768267055
   3       -0.361857231397
   4      0.06783345766072
   5    -0.011921454719937
   6     0.002174582741888
 Sym= A
 Ene=               2
 Spin= Alpha
 Occup=    1.00000
   1     0.061522613349348
   2       -0.361857231397
   3        1.274548298613
   4     -0.36378957616128
   5      0.06783345766072
   6    -0.010762270706592
 Sym= A
 Ene=               3
 Spin= Alpha
 Occup=    0.00000
   1    -0.010762270706592
   2      0.06783345766072
   3     -0.36378957616128
   4        1.274548298613
   5       -0.361857231397
   6     0.061522613349347
 Sym= A
 Ene=               4
 Spin= Alpha
 Occup=    0.00000
   1    0.0021745827418879
   2    -0.011921454719937
   3      0.06783345766072
   4       -0.361857231397
   5       1.2648768267055
   6     -0.32797416880703
 Sym= A
 Ene=               5
 Spin= Alpha
 Occup=    0.00000
   1    -0.00044994076902621
   2     0.002174582741888
   3    -0.010762270706592
   4     0.061522613349347
   5     -0.32797416880703
   6        1.121423611461
