 &FCI NORB=  10,NELEC=10,MS2=8,
  ORBSYM=1,1,1,1,1,1,1,1,1,1,
  ISYM=1,
 &END
 0.3495791600652841    1    1    1    1
 7.500387808740511e-05    2    1    1    1
 0.003940059446220324    2    1    2    1
 0.2327369566591208    2    2    1    1
 0.003115835688252765    2    2    2    1
 0.3788993103253829    2    2    2    2
 0.01350729564068359    3    1    1    1
 0.0007241673398399034    3    1    2    1
 0.0002651040278063096    3    1    2    2
 0.009080967286089387    3    1    3    1
 0.004126624848370637    3    2    1    1
 -0.0002424627896601376    3    2    2    1
 0.01659925158906874    3    2    2    2
 -0.002656190121646921    3    2    3    1
 0.0143907306249409    3    2    3    2
 0.2216879614794691    3    3    1    1
 -0.0005179512642115944    3    3    2    1
 0.2554012514896888    3    3    2    2
 0.003748752598076305    3    3    3    1
 0.001055715297134663    3    3    3    2
 0.2466344549082244    3    3    3    3
 0.0001070066688115443    4    1    1    1
 0.0008024426983023868    4    1    2    1
 0.01438286608951814    4    1    2    2
 -0.001961582450852083    4    1    3    1
 0.003584906228908581    4    1    3    2
 0.0002842141183715787    4    1    3    3
 0.008014457344208586    4    1    4    1
 0.00195877930304829    4    2    1    1
 0.001188230156712619    4    2    2    1
 -0.01393102778705297    4    2    2    2
 0.0007702989626364012    4    2    3    1
 -0.002010509462724101    4    2    3    2
 -0.003718095906019789    4    2    3    3
 -0.0008712164975682657    4    2    4    1
 0.005035502823708486    4    2    4    2
 0.002769909687509977    4    3    1    1
 0.0006292043472209776    4    3    2    1
 -0.004485514038504034    4    3    2    2
 -0.002644136094151765    4    3    3    1
 0.002906345528677954    4    3    3    2
 -0.01156926703085524    4    3    3    3
 0.002041759673398032    4    3    4    1
 0.001507012946337635    4    3    4    2
 0.01007481375456267    4    3    4    3
 0.2335516063150347    4    4    1    1
 0.001797884482435683    4    4    2    1
 0.2127745232024626    4    4    2    2
 -0.002382602360701237    4    4    3    1
 0.01139100732267631    4    4    3    2
 0.1786796991951852    4    4    3    3
 0.005840145619611804    4    4    4    1
 0.002086028089287865    4    4    4    2
 0.03328730320660911    4    4    4    3
 0.3708259309467687    4    4    4    4
 -0.02416983275730078    5    1    1    1
 -0.001589309021753421    5    1    2    1
 0.009790006820094649    5    1    2    2
 -0.008115697673588756    5    1    3    1
 0.006713605278245674    5    1    3    2
 -0.003907696551170637    5    1    3    3
 0.006590831687612377    5    1    4    1
 -0.001293921733115945    5    1    4    2
 0.005039283301815278    5    1    4    3
 0.008206578167562591    5    1    4    4
 0.02750040607064282    5    1    5    1
 -0.009913429577949483    5    2    1    1
 0.002202028402933625    5    2    2    1
 0.0467153200759077    5    2    2    2
 0.002390098727080011    5    2    3    1
 0.001662008491738393    5    2    3    2
 0.01624875980309453    5    2    3    3
 0.00167648139654166    5    2    4    1
 -0.004331448245065476    5    2    4    2
 -0.006205878051866862    5    2    4    3
 -0.01346309110851282    5    2    4    4
 -0.002344427204251061    5    2    5    1
 0.02326438630158537    5    2    5    2
 -0.001676357026317351    5    3    1    1
 0.002126386564835945    5    3    2    1
 0.0002728023211341257    5    3    2    2
 0.008643142812050097    5    3    3    1
 -0.007127259544702627    5    3    3    2
 0.01256573735074641    5    3    3    3
 -0.005610078400644336    5    3    4    1
 -0.0009339134637068405    5    3    4    2
 -0.009011487074921004    5    3    4    3
 -0.01835212968610745    5    3    4    4
 -0.02167058226746589    5    3    5    1
 0.01212473061835107    5    3    5    2
 0.03408935476099642    5    3    5    3
 0.001474344284741606    5    4    1    1
 -0.00023054880552062    5    4    2    1
 -0.001583633514821529    5    4    2    2
 0.0003680864813501721    5    4    3    1
 -0.001333011324712238    5    4    3    2
 -0.0004362713613389396    5    4    3    3
 -0.0005851834660981574    5    4    4    1
 -0.001117718667516717    5    4    4    2
 -0.001541789529069261    5    4    4    3
 -0.00234904565365437    5    4    4    4
 -0.002274391492669096    5    4    5    1
 0.0007460187655991017    5    4    5    2
 0.001638304868781009    5    4    5    3
 0.004681151808418062    5    4    5    4
 0.2548764694056515    5    5    1    1
 -0.003150823330209046    5    5    2    1
 0.2225834655746395    5    5    2    2
 -0.007021344185386469    5    5    3    1
 0.01093532009101711    5    5    3    2
 0.2127098414464627    5    5    3    3
 0.001306349184756361    5    5    4    1
 0.0009387005712781192    5    5    4    2
 0.005587480928721654    5    5    4    3
 0.2205860719568321    5    5    4    4
 0.006443350957896929    5    5    5    1
 -0.01282385355702288    5    5    5    2
 -0.02225882577322169    5    5    5    3
 -1.185684233590001e-05    5    5    5    4
 0.2631133985332189    5    5    5    5
 0.0110615169042779    6    1    1    1
 0.001559825827783566    6    1    2    1
 0.01449110341930741    6    1    2    2
 0.002639102067652793    6    1    3    1
 4.739480207531272e-05    6    1    3    2
 0.006287892634095285    6    1    3    3
 0.0004226425357738417    6    1    4    1
 -0.0004665679918135369    6    1    4    2
 -0.0008768596848139187    6    1    4    3
 0.002647278642159142    6    1    4    4
 -0.006272320643360063    6    1    5    1
 0.005235367054229391    6    1    5    2
 0.005684682241668126    6    1    5    3
 0.0005686032060109574    6    1    5    4
 -0.0004734452166511227    6    1    5    5
 0.005912933443298884    6    1    6    1
 0.01127251949578588    6    2    1    1
 0.000801963714122389    6    2    2    1
 0.01868251828601331    6    2    2    2
 0.0002579263949064385    6    2    3    1
 0.001564301332664483    6    2    3    2
 0.01116333323986938    6    2    3    3
 0.001814732866296813    6    2    4    1
 0.0005340776671939507    6    2    4    2
 -0.00404831902658591    6    2    4    3
 -0.02049207087203976    6    2    4    4
 0.002170943823580163    6    2    5    1
 0.00496719208293306    6    2    5    2
 -0.001733660138340482    6    2    5    3
 0.0004903687138368279    6    2    5    4
 0.008252131155041772    6    2    5    5
 0.001326234687836135    6    2    6    1
 0.01330794215772159    6    2    6    2
 0.002915272335223727    6    3    1    1
 -0.0008755681108410136    6    3    2    1
 0.007705741027266571    6    3    2    2
 -0.003196058550561538    6    3    3    1
 0.004651951511653082    6    3    3    2
 0.001004201993420291    6    3    3    3
 0.002661130173352238    6    3    4    1
 -0.0009388078958345273    6    3    4    2
 0.002215121124850071    6    3    4    3
 -0.003959376091199589    6    3    4    4
 0.008580922004237431    6    3    5    1
 -0.00188277781794417    6    3    5    2
 -0.01193383437330936    6    3    5    3
 0.0005160283966215479    6    3    5    4
 0.01130550455165635    6    3    5    5
 -0.00182688855045709    6    3    6    1
 0.004584108751556756    6    3    6    2
 0.009901456937884983    6    3    6    3
 -0.006138884539166939    6    4    1    1
 -6.730826132012036e-05    6    4    2    1
 0.01824893548744587    6    4    2    2
 3.124664501502638e-05    6    4    3    1
 -3.321611903923412e-05    6    4    3    2
 0.01093219822548216    6    4    3    3
 0.00130100918686706    6    4    4    1
 -0.004827510625735884    6    4    4    2
 -0.00660015178847896    6    4    4    3
 -0.02467836366867878    6    4    4    4
 0.001441552507614246    6    4    5    1
 0.008071450650915258    6    4    5    2
 0.003669068960038998    6    4    5    3
 0.005523703298022884    6    4    5    4
 -0.002746052006807186    6    4    5    5
 0.001703236505564013    6    4    6    1
 0.005591206313422118    6    4    6    2
 0.002904864789800656    6    4    6    3
 0.02038046492050308    6    4    6    4
 -0.02867046349953542    6    5    1    1
 0.003239791225356438    6    5    2    1
 0.004710714733240218    6    5    2    2
 0.0009097332837150961    6    5    3    1
 0.0002192908911004951    6    5    3    2
 -0.01263043863448639    6    5    3    3
 0.001614222214801897    6    5    4    1
 4.401864386220818e-05    6    5    4    2
 0.008542960591769925    6    5    4    3
 0.04707347703140222    6    5    4    4
 0.0009589842389154234    6    5    5    1
 0.006436554301865396    6    5    5    2
 0.006307698616447718    6    5    5    3
 -0.0004901078604391549    6    5    5    4
 -0.0247142358703533    6    5    5    5
 0.001870319771883244    6    5    6    1
 -0.01493134159525818    6    5    6    2
 -0.008009302729228021    6    5    6    3
 -0.005586873649206686    6    5    6    4
 0.04535602392851892    6    5    6    5
 0.2055578058728797    6    6    1    1
 0.001369088644522407    6    6    2    1
 0.2180720205288653    6    6    2    2
 -0.00400629084621125    6    6    3    1
 0.009090871975080472    6    6    3    2
 0.1887022555647871    6    6    3    3
 0.002912404875755434    6    6    4    1
 0.001495170818733196    6    6    4    2
 0.01972780821237854    6    6    4    3
 0.3015724831757449    6    6    4    4
 0.007099288018529805    6    6    5    1
 -0.006962969988800386    6    6    5    2
 -0.0122874527907166    6    6    5    3
 -0.00158519148954895    6    6    5    4
 0.2204708923896315    6    6    5    5
 0.001002579263893577    6    6    6    1
 -0.0214176873049912    6    6    6    2
 -0.004490754667492412    6    6    6    3
 -0.01556182560346128    6    6    6    4
 0.04938861919117202    6    6    6    5
 0.3080531483008964    6    6    6    6
 -0.002863660655105182    7    1    1    1
 -0.000706427198976959    7    1    2    1
 -0.03079232690231617    7    1    2    2
 0.004283275414158889    7    1    3    1
 -0.009268383308681299    7    1    3    2
 0.0001328862610536375    7    1    3    3
 -0.01189478626462597    7    1    4    1
 0.001396947226200792    7    1    4    2
 -0.008600809082985415    7    1    4    3
 -0.02909423631783202    7    1    4    4
 -0.01909027823641913    7    1    5    1
 -0.0007211151591541881    7    1    5    2
 0.01853837533507424    7    1    5    3
 0.002707077354932119    7    1    5    4
 -0.008517320868289    7    1    5    5
 -0.002297105584159061    7    1    6    1
 -0.002526394603475902    7    1    6    2
 -0.007418009870300299    7    1    6    3
 -0.0002886030435000158    7    1    6    4
 -0.00552559655267672    7    1    6    5
 -0.01642197402360303    7    1    6    6
 0.03755429141409641    7    1    7    1
 0.004223440769098342    7    2    1    1
 -0.001750999401456272    7    2    2    1
 0.006915820497711588    7    2    2    2
 2.319297641580086e-06    7    2    3    1
 -4.840782315483443e-05    7    2    3    2
 0.006086410781974234    7    2    3    3
 9.991649044745253e-05    7    2    4    1
 -0.002764721899273658    7    2    4    2
 -0.003661525862696814    7    2    4    3
 -0.01177382665736428    7    2    4    4
 -0.002035161303282436    7    2    5    1
 0.002269403393282511    7    2    5    2
 0.002469924725449783    7    2    5    3
 -8.523514161552651e-05    7    2    5    4
 0.0006342370379242618    7    2    5    5
 0.0005605558451911154    7    2    6    1
 0.0008566380757854664    7    2    6    2
 0.000399569537489736    7    2    6    3
 0.001836978576226317    7    2    6    4
 -0.007828358493311753    7    2    6    5
 -0.01195376554247942    7    2    6    6
 0.002622071875710101    7    2    7    1
 0.00641139264364286    7    2    7    2
 -0.005709480082841082    7    3    1    1
 -0.0006578511895064314    7    3    2    1
 0.003653243145134289    7    3    2    2
 -0.000564463693703592    7    3    3    1
 0.001999575455379651    7    3    3    2
 -0.0009808724949298981    7    3    3    3
 0.0004443498635672475    7    3    4    1
 -0.001124810162848011    7    3    4    2
 0.0002043398693706065    7    3    4    3
 0.005545454337147431    7    3    4    4
 0.004824565199490769    7    3    5    1
 0.001171602349200723    7    3    5    2
 -0.003972140387346619    7    3    5    3
 0.0001612443717484301    7    3    5    4
 -0.0009756603737086028    7    3    5    5
 -0.001165163153510255    7    3    6    1
 -0.0005866152018046115    7    3    6    2
 -0.001228283214025742    7    3    6    3
 0.0009592536873359826    7    3    6    4
 0.002007479808126459    7    3    6    5
 0.003865777930369459    7    3    6    6
 -0.003028317022559662    7    3    7    1
 -0.000301343915756305    7    3    7    2
 0.005280553712287693    7    3    7    3
 -0.02231906435304656    7    4    1    1
 0.0004851355641659232    7    4    2    1
 -0.03145103351825417    7    4    2    2
 -0.002508985757210902    7    4    3    1
 -0.002247646725542007    7    4    3    2
 -0.01847347144026244    7    4    3    3
 -0.004849398340241475    7    4    4    1
 0.00160423554140829    7    4    4    2
 0.008242440602100306    7    4    4    3
 0.03722009509596197    7    4    4    4
 0.001010664018032663    7    4    5    1
 -0.007737901840037401    7    4    5    2
 -0.0008326332198428203    7    4    5    3
 0.00253050915337014    7    4    5    4
 -0.007394018283065795    7    4    5    5
 -0.003283544772180852    7    4    6    1
 -0.01137425450796659    7    4    6    2
 -0.003145191960407008    7    4    6    3
 -0.004429533652110193    7    4    6    4
 0.01822966771991516    7    4    6    5
 0.02428753914144979    7    4    6    6
 0.004766398616971047    7    4    7    1
 -0.005730361583149431    7    4    7    2
 0.001669410646864227    7    4    7    3
 0.02916128167109421    7    4    7    4
 -0.01298014172906292    7    5    1    1
 0.0006303638583201325    7    5    2    1
 -0.008926371105248073    7    5    2    2
 0.0007680314025868579    7    5    3    1
 0.001129948498149454    7    5    3    2
 -0.01131418785741634    7    5    3    3
 0.0005737154070289261    7    5    4    1
 0.0004027078087522552    7    5    4    2
 0.005397744330648867    7    5    4    3
 0.02311500818554819    7    5    4    4
 0.003227108184614217    7    5    5    1
 -0.003339847137837271    7    5    5    2
 -0.00272454328955145    7    5    5    3
 -0.0001502898902334352    7    5    5    4
 -0.005223314919740507    7    5    5    5
 -0.001138492744181096    7    5    6    1
 -0.008312846321331262    7    5    6    2
 -0.002442966192691201    7    5    6    3
 -0.002985606253351518    7    5    6    4
 0.01475511587857792    7    5    6    5
 0.02348886460029821    7    5    6    6
 -0.004648030143158025    7    5    7    1
 -0.004446855268764849    7    5    7    2
 0.002338727475554978    7    5    7    3
 0.01156127492576981    7    5    7    4
 0.01277889651239435    7    5    7    5
 -0.01857594259303078    7    6    1    1
 -0.0003036221155450949    7    6    2    1
 -0.03310089853998564    7    6    2    2
 -0.005099372341307393    7    6    3    1
 0.001704402931536521    7    6    3    2
 -0.02722398801252887    7    6    3    3
 -0.0004584269656131637    7    6    4    1
 0.001774190368359217    7    6    4    2
 0.01294958667594016    7    6    4    3
 0.04997283241803198    7    6    4    4
 0.006328042181178625    7    6    5    1
 -0.01519479373780087    7    6    5    2
 -0.01126723232812007    7    6    5    3
 0.0008003473363439109    7    6    5    4
 0.0003141724734768109    7    6    5    5
 -0.005671108255228371    7    6    6    1
 -0.0164457402980249    7    6    6    2
 -0.001714634943443618    7    6    6    3
 -0.01045442557061893    7    6    6    4
 0.02794948219035632    7    6    6    5
 0.04815365410535697    7    6    6    6
 -0.005353793611441885    7    6    7    1
 -0.008632022294718815    7    6    7    2
 0.002183075013288236    7    6    7    3
 0.02579632997314098    7    6    7    4
 0.0167462683495178    7    6    7    5
 0.04544647629745475    7    6    7    6
 0.2894897054670372    7    7    1    1
 0.001757514935814926    7    7    2    1
 0.2344697347016746    7    7    2    2
 0.006618024467594293    7    7    3    1
 0.006310263544454971    7    7    3    2
 0.2112979200126703    7    7    3    3
 0.003062614281559219    7    7    4    1
 0.0004864343669260182    7    7    4    2
 0.009973391495935484    7    7    4    3
 0.2657882219089804    7    7    4    4
 -0.01225077946430557    7    7    5    1
 -0.006371230912394766    7    7    5    2
 -0.0006914116959736497    7    7    5    3
 0.0006202176565338405    7    7    5    4
 0.2371927896720998    7    7    5    5
 0.007456181197215819    7    7    6    1
 -0.0006121843466421351    7    7    6    2
 -0.0006125432815135201    7    7    6    3
 -0.003623047978064078    7    7    6    4
 0.003182631196362307    7    7    6    5
 0.2424378872285798    7    7    6    6
 -0.01026238626303339    7    7    7    1
 -0.001711816307739422    7    7    7    2
 -0.003752841231091927    7    7    7    3
 -0.004784291142842616    7    7    7    4
 0.001678332344298642    7    7    7    5
 0.00158144753658385    7    7    7    6
 0.289419281659002    7    7    7    7
 0.02218485128692763    8    1    1    1
 0.001596751418010143    8    1    2    1
 0.02630384900807095    8    1    2    2
 -0.002554954056542083    8    1    3    1
 0.008925159580303189    8    1    3    2
 -0.005302302567353922    8    1    3    3
 0.0124337873987038    8    1    4    1
 -0.001385250180104667    8    1    4    2
 0.01016767766481299    8    1    4    3
 0.03215055124161394    8    1    4    4
 0.01666381358697469    8    1    5    1
 -0.003332180750637723    8    1    5    2
 -0.02007056311556727    8    1    5    3
 -0.002684471656622939    8    1    5    4
 0.01127414284297355    8    1    5    5
 0.003378131089261693    8    1    6    1
 0.004165671435277157    8    1    6    2
 0.007735915769629657    8    1    6    3
 -0.003007038997859371    8    1    6    4
 0.00103613935191766    8    1    6    5
 0.01041769775465399    8    1    6    6
 -0.03592090832646379    8    1    7    1
 -0.002260585379433261    8    1    7    2
 0.001694955395289286    8    1    7    3
 -0.005514600448726758    8    1    7    4
 0.004024061777576774    8    1    7    5
 0.006400225659668696    8    1    7    6
 0.01520068614877149    8    1    7    7
 0.04953826274974613    8    1    8    1
 0.00725281445728005    8    2    1    1
 0.0004355377244077806    8    2    2    1
 0.007192754789854579    8    2    2    2
 0.001041098540157043    8    2    3    1
 0.0009888940038832745    8    2    3    2
 0.00237227663702647    8    2    3    3
 0.001522401208331907    8    2    4    1
 -0.002445864051115435    8    2    4    2
 -0.0004454349890533028    8    2    4    3
 -0.001142497266789026    8    2    4    4
 0.0002290664112122057    8    2    5    1
 -0.000858319057861947    8    2    5    2
 -0.001882653157095117    8    2    5    3
 -0.001182469938971517    8    2    5    4
 0.001630288903264066    8    2    5    5
 0.001173497911197879    8    2    6    1
 -0.002326408351136411    8    2    6    2
 0.0005114478720718998    8    2    6    3
 0.001226614723952112    8    2    6    4
 -0.005421141598751424    8    2    6    5
 -0.00423825228846712    8    2    6    6
 -0.003296991823321572    8    2    7    1
 0.004232120827739312    8    2    7    2
 0.000920826349727186    8    2    7    3
 -0.004088309206943154    8    2    7    4
 -2.74469935877045e-05    8    2    7    5
 -0.004102236508520303    8    2    7    6
 0.003104308984492224    8    2    7    7
 0.004783443637938376    8    2    8    1
 0.01009348311998939    8    2    8    2
 0.002968241582072238    8    3    1    1
 0.0009074740958078835    8    3    2    1
 0.0003926905683128517    8    3    2    2
 -0.002273074987525979    8    3    3    1
 0.0006805567842725618    8    3    3    2
 -0.002099618966469248    8    3    3    3
 0.001954069276803486    8    3    4    1
 6.221342404920947e-05    8    3    4    2
 -0.0002951180677406695    8    3    4    3
 0.003739774442088556    8    3    4    4
 -0.0004861787298858448    8    3    5    1
 -0.001467440392466244    8    3    5    2
 -0.003418239110021504    8    3    5    3
 -0.0002860158390115965    8    3    5    4
 0.0004853081132606909    8    3    5    5
 0.0007202517846814553    8    3    6    1
 -0.0003182238648232043    8    3    6    2
 -0.001504041358557947    8    3    6    3
 4.800979644391354e-05    8    3    6    4
 -0.0005408275960984797    8    3    6    5
 -0.0002356309985008163    8    3    6    6
 -0.00291701859979434    8    3    7    1
 0.0007603538447643228    8    3    7    2
 0.0001988453343120975    8    3    7    3
 -0.0001949368050127439    8    3    7    4
 -0.0005982885854075475    8    3    7    5
 0.0007997145209118057    8    3    7    6
 0.003480197498305611    8    3    7    7
 0.004706134963444696    8    3    8    1
 0.001346959432493889    8    3    8    2
 0.007692928553510519    8    3    8    3
 0.01854677586833347    8    4    1    1
 0.0002342081001110942    8    4    2    1
 -0.01987280367383867    8    4    2    2
 0.001588704143834516    8    4    3    1
 -7.083301009959669e-05    8    4    3    2
 -0.01067129117305058    8    4    3    3
 0.0005725532004211007    8    4    4    1
 0.002574952442706441    8    4    4    2
 0.00560767125232583    8    4    4    3
 0.01922532664091174    8    4    4    4
 -0.001318604186360022    8    4    5    1
 -0.01071123751434553    8    4    5    2
 -0.004855951113855481    8    4    5    3
 0.0008321356048194945    8    4    5    4
 0.006973059214197768    8    4    5    5
 -0.001676919411148728    8    4    6    1
 -0.001831783992696963    8    4    6    2
 0.0006852722662208034    8    4    6    3
 -0.004897003684627056    8    4    6    4
 -0.001359303083238808    8    4    6    5
 0.004517957236668249    8    4    6    6
 -0.00141342541991192    8    4    7    1
 -0.002703184511184618    8    4    7    2
 -0.0006038601162268763    8    4    7    3
 0.007349661058769961    8    4    7    4
 0.003457502153763684    8    4    7    5
 0.01113186910320357    8    4    7    6
 0.01216354522772534    8    4    7    7
 0.007304545081122668    8    4    8    1
 4.996136959144713e-05    8    4    8    2
 0.0006352043797745316    8    4    8    3
 0.01303768285119794    8    4    8    4
 0.006993391709205525    8    5    1    1
 -0.0001165551627859346    8    5    2    1
 -0.01408953143270784    8    5    2    2
 -0.001932723839242426    8    5    3    1
 -8.499949696314099e-05    8    5    3    2
 -0.0102033306695531    8    5    3    3
 -0.0007933106765912203    8    5    4    1
 0.0004822684970717799    8    5    4    2
 0.004412604467035598    8    5    4    3
 0.01729822871382    8    5    4    4
 -0.0004031990638814817    8    5    5    1
 -0.007840787248482067    8    5    5    2
 -0.00457344155738262    8    5    5    3
 -0.0002551651969287485    8    5    5    4
 0.002224418809327303    8    5    5    5
 -0.001588771179955756    8    5    6    1
 -0.005848509122485518    8    5    6    2
 -0.0006474801024526113    8    5    6    3
 -0.00504101118282879    8    5    6    4
 0.005266556482992985    8    5    6    5
 0.0102355431444386    8    5    6    6
 0.0003328966362645793    8    5    7    1
 -0.001551697670154886    8    5    7    2
 -0.001003860781279111    8    5    7    3
 0.006690170902059602    8    5    7    4
 0.002475854840300503    8    5    7    5
 0.01331107193382575    8    5    7    6
 0.007385546583793855    8    5    7    7
 0.003299686135701516    8    5    8    1
 0.001057086005151493    8    5    8    2
 0.002884678839142991    8    5    8    3
 0.006163729955117369    8    5    8    4
 0.0100313760592508    8    5    8    5
 0.01746108831736191    8    6    1    1
 -0.0003036239167227412    8    6    2    1
 -0.05340910338181207    8    6    2    2
 0.002612375818459484    8    6    3    1
 -0.003949096068335258    8    6    3    2
 -0.02251724294970069    8    6    3    3
 -0.006085783470991052    8    6    4    1
 0.005656990073957998    8    6    4    2
 0.007137251464654553    8    6    4    3
 0.02500099157779977    8    6    4    4
 -0.007905731661558757    8    6    5    1
 -0.0213091366049352    8    6    5    2
 -0.001825794335108332    8    6    5    3
 -0.0001835363293771278    8    6    5    4
 0.007826182573619615    8    6    5    5
 -0.00493201014156402    8    6    6    1
 -0.01011508766709045    8    6    6    2
 -0.004449387917402004    8    6    6    3
 -0.01420678122128231    8    6    6    4
 0.002213751656855824    8    6    6    5
 0.01688078401701331    8    6    6    6
 0.01051928370530832    8    6    7    1
 -0.004717063163204445    8    6    7    2
 -0.002079020066812601    8    6    7    3
 0.01728264471323015    8    6    7    4
 0.01026294899901632    8    6    7    5
 0.02458947601192786    8    6    7    6
 0.01596196973797675    8    6    7    7
 -0.003336435683695423    8    6    8    1
 -0.001688945166366765    8    6    8    2
 0.000339679295974624    8    6    8    3
 0.01709697924476766    8    6    8    4
 0.01068669631733128    8    6    8    5
 0.04020947194936364    8    6    8    6
 -0.04417346854452481    8    7    1    1
 0.001069306585960462    8    7    2    1
 0.0421815947575593    8    7    2    2
 -0.006848731409242674    8    7    3    1
 0.008638311620342702    8    7    3    2
 6.817895956238995e-07    8    7    3    3
 0.009449618583603575    8    7    4    1
 -0.005581487889260613    8    7    4    2
 0.005410675773496517    8    7    4    3
 0.0217000618935595    8    7    4    4
 0.02031762223137558    8    7    5    1
 0.01295597796248014    8    7    5    2
 -0.01174853870998803    8    7    5    3
 -0.001042462019912225    8    7    5    4
 -0.01191211608897422    8    7    5    5
 0.002293529258703401    8    7    6    1
 -0.002152399732206747    8    7    6    2
 0.004050324783638286    8    7    6    3
 0.00730719621780564    8    7    6    4
 0.02442910978359131    8    7    6    5
 0.02510585573018604    8    7    6    6
 -0.02699022762595184    8    7    7    1
 -0.002928848622226341    8    7    7    2
 0.006690336567646982    8    7    7    3
 0.002161030373026296    8    7    7    4
 0.00744029612602527    8    7    7    5
 0.01079782624677538    8    7    7    6
 -0.0171422868094709    8    7    7    7
 0.02151159912776727    8    7    8    1
 0.001112988568980911    8    7    8    2
 0.0007661750026604344    8    7    8    3
 -0.01125199977167463    8    7    8    4
 -0.003380370878604667    8    7    8    5
 -0.02805483112878195    8    7    8    6
 0.0552341528245763    8    7    8    7
 0.2879142958785132    8    8    1    1
 0.002677594565110233    8    8    2    1
 0.2859070096032316    8    8    2    2
 0.00949100321226568    8    8    3    1
 0.006135813775216225    8    8    3    2
 0.2420414445183129    8    8    3    3
 0.004738481727464029    8    8    4    1
 -0.004557465613086759    8    8    4    2
 -0.00307584984362314    8    8    4    3
 0.2224328576450763    8    8    4    4
 -0.01234103132182299    8    8    5    1
 0.01697435707110981    8    8    5    2
 0.01047414888388115    8    8    5    3
 0.001623043785635721    8    8    5    4
 0.232412820478945    8    8    5    5
 0.01284966299154591    8    8    6    1
 0.01102224320666693    8    8    6    2
 0.0006283397587075659    8    8    6    3
 0.009062695911539426    8    8    6    4
 -0.007480186472281755    8    8    6    5
 0.2190126437730127    8    8    6    6
 -0.004184660259475295    8    8    7    1
 0.005464290329394869    8    8    7    2
 -0.002364763717131964    8    8    7    3
 -0.02488393263826294    8    8    7    4
 -0.01015377410999055    8    8    7    5
 -0.03297848086015948    8    8    7    6
 0.2704889792843421    8    8    7    7
 0.009988729333201322    8    8    8    1
 0.005839004922749868    8    8    8    2
 2.188574322169873e-06    8    8    8    3
 -0.005322479523131113    8    8    8    4
 -0.007671910919485245    8    8    8    5
 -0.01918806639734467    8    8    8    6
 -0.00722512403716763    8    8    8    7
 0.3078609246411321    8    8    8    8
 0.006169603009508645    9    1    1    1
 -0.001774636217269732    9    1    2    1
 -0.01303118376988798    9    1    2    2
 0.007762596967326313    9    1    3    1
 -0.006517496394496372    9    1    3    2
 0.003187805720021112    9    1    3    3
 -0.00707261321955114    9    1    4    1
 0.0008787791174887389    9    1    4    2
 -0.005509546571602623    9    1    4    3
 -0.01053937042588984    9    1    4    4
 -0.01300314408416576    9    1    5    1
 0.002347624864477932    9    1    5    2
 0.0157247126085184    9    1    5    3
 0.001718171210027288    9    1    5    4
 -0.01071854554562053    9    1    5    5
 0.001379175511509046    9    1    6    1
 -0.00222069706334479    9    1    6    2
 -0.007213945599728068    9    1    6    3
 -7.890582400175571e-05    9    1    6    4
 0.0005299503723082714    9    1    6    5
 -0.008161656063058888    9    1    6    6
 0.01529780696750617    9    1    7    1
 0.000724390309330311    9    1    7    2
 -0.001112372617949085    9    1    7    3
 0.0001770346821410914    9    1    7    4
 -0.001572457206152715    9    1    7    5
 -0.004872986663682388    9    1    7    6
 0.0007667780574263112    9    1    7    7
 -0.01681133268804466    9    1    8    1
 -0.002385172160861626    9    1    8    2
 -0.002886015666740834    9    1    8    3
 -0.000478278012793508    9    1    8    4
 1.096328698303343e-05    9    1    8    5
 0.004688845350200874    9    1    8    6
 -0.01474814400310281    9    1    8    7
 0.002487263187151055    9    1    8    8
 0.01911002353319407    9    1    9    1
 -0.02726028703622549    9    2    1    1
 -0.000701424162258866    9    2    2    1
 0.008860341504448326    9    2    2    2
 -0.004152140326847099    9    2    3    1
 -0.004665203233789666    9    2    3    2
 0.001435301178893919    9    2    3    3