 &FCI NORB=   6,NELEC= 5,MS2=1,
  ORBSYM=1,1,1,1,1,1,
  ISYM=1,
 &END
 0.8310515989637811    1    1    1    1
 -0.01185707811718479    2    1    1    1
 0.01011039412599475    2    1    2    1
 0.4565261402537333    2    2    1    1
 -0.008732124650993626    2    2    2    1
 0.903152426847204    2    2    2    2
 0.002103896381123171    3    1    1    1
 -0.001117169932658091    3    1    2    1
 -0.006744389795204169    3    1    2    2
 0.0004556081528730048    3    1    3    1
 -0.01281093551553155    3    2    1    1
 -0.001669661993356864    3    2    2    1
 -0.01491855006024854    3    2    2    2
 -0.00101736202207368    3    2    3    1
 0.01131044978276494    3    2    3    2
 0.2526013653957478    3    3    1    1
 -0.01082758971655088    3    3    2    1
 0.4798983083066204    3    3    2    2
 0.002053220960752521    3    3    3    1
 -0.01470853824356921    3    3    3    2
 0.9078298616630021    3    3    3    3
 -0.0007348212358711732    4    1    1    1
 0.00018338334448417    4    1    2    1
 0.001405337249094481    4    1    2    2
 -6.191109657600517e-05    4    1    3    1
 7.737439895586596e-05    4    1    3    2
 0.001350484577395296    4    1    3    3
 2.076731749816934e-05    4    1    4    1
 0.00254810500825678    4    2    1    1
 0.0003945661892678854    4    2    2    1
 0.002656636420807221    4    2    2    2
 2.460740349013378e-05    4    2    3    1
 -0.001176146806432478    4    2    3    2
 -0.006711921370964049    4    2    3    3
 -6.124072344020053e-05    4    2    4    1
 0.0005236413501435619    4    2    4    2
 -0.003687631905495389    4    3    1    1
 0.0007556861338206659    4    3    2    1
 -0.01394333541490327    4    3    2    2
 0.0003634139487490748    4    3    3    1
 -0.001606165054078128    4    3    3    2
 -0.01504681128726667    4    3    3    3
 0.0001673121638309536    4    3    4    1
 -0.001170364713800945    4    3    4    2
 0.01138212606124553    4    3    4    3
 0.1710887759290889    4    4    1    1
 -0.002745471419998112    4    4    2    1
 0.2611722322503521    4    4    2    2
 0.002338006365803467    4    4    3    1
 -0.01383078544442218    4    4    3    2
 0.4812485918033753    4    4    3    3
 -0.000713608953882023    4    4    4    1
 0.002625564276119305    4    4    4    2
 -0.01504681128726685    4    4    4    3
 0.9078298616630012    4    4    4    4
 0.0002351891566957384    5    1    1    1
 -3.948611604858836e-05    5    1    2    1
 -0.0002338482921448607    5    1    2    2
 1.115666571749342e-05    5    1    3    1
 -1.081055851552335e-05    5    1    3    2
 -0.0003172722972236444    5    1    3    3
 -3.144128109885108e-06    5    1    4    1
 7.284626277713351e-06    5    1    4    2
 -1.161229881842476e-05    5    1    4    3
 -0.0002187940284948479    5    1    4    4
 1.027720501654682e-06    5    1    5    1
 -0.0006242263489477894    5    2    1    1
 -6.72198120220744e-05    5    2    2    1
 -0.0008614766187099919    5    2    2    2
 4.939832943326089e-06    5    2    3    1
 0.0001887340625066312    5    2    3    2
 0.001420700337994197    5    2    3    3
 4.97518421340364e-06    5    2    4    1
 -6.921706704241831e-05    5    2    4    2
 9.235914841936014e-05    5    2    4    3
 0.001420700337994158    5    2    4    4
 -3.165979824347972e-06    5    2    5    1
 2.421725515718772e-05    5    2    5    2
 0.0007706666326011705    5    3    1    1
 -0.0001380982080389853    5    3    2    1
 0.002737058150031247    5    3    2    2
 -8.157326878245505e-05    5    3    3    1
 0.0003891966617683129    5    3    3    2
 0.002625564276119387    5    3    3    3
 3.584107306252112e-06    5    3    4    1
 3.364444664797608e-05    5    3    4    2
 -0.001170364713800924    5    3    4    3
 -0.006711921370963871    5    3    4    4
 1.102721037851778e-05    5    3    5    1
 -6.921706704242016e-05    5    3    5    2
 0.0005236413501435696    5    3    5    3
 -0.001319753903660306    5    4    1    1
 0.0001634289620153084    5    4    2    1
 -0.003912297756495167    5    4    2    2
 -0.0001456611064594883    5    4    3    1
 0.0008882995333617961    5    4    3    2
 -0.01383078544442236    5    4    3    3
 -5.88455422188658e-05    5    4    4    1
 0.000389196661768277    5    4    4    2
 -0.00160616505407816    5    4    4    3
 -0.01470853824356921    5    4    4    4
 -3.643064702463591e-05    5    4    5    1
 0.0001887340625066466    5    4    5    2
 -0.001176146806432495    5    4    5    3
 0.01131044978276481    5    4    5    4
 0.1291665487432817    5    5    1    1
 -0.0007983106105192788    5    5    2    1
 0.1748872350978664    5    5    2    2
 0.0006691328675033949    5    5    3    1
 -0.003912297756495056    5    5    3    2
 0.261172232250352    5    5    3    3
 -0.0005751019634328788    5    5    4    1
 0.002737058150031179    5    5    4    2
 -0.01394333541490317    5    5    4    3
 0.4798983083066189    5    5    4    4
 0.0002361576152711529    5    5    5    1
 -0.0008614766187100961    5    5    5    2
 0.002656636420807455    5    5    5    3
 -0.01491855006024895    5    5    5    4
 0.9031524268472026    5    5    5    5
 -5.394133425453413e-05    6    1    1    1
 8.689181322163018e-06    6    1    2    1
 3.615878487377769e-05    6    1    2    2
 -2.176917205651097e-06    6    1    3    1
 2.020342794864611e-06    6    1    3    2
 5.346334377065587e-05    6    1    3    3
 5.353394039625349e-07    6    1    4    1
 -9.684255311048088e-07    6    1    4    2
 9.333498764843773e-07    6    1    4    3
 5.346334377066031e-05    6    1    4    4
 -1.400702722361473e-07    6    1    5    1
 3.218326144652692e-07    6    1    5    2
 -9.684255311048672e-07    6    1    5    3
 2.020342794864855e-06    6    1    5    4
 3.615878487379377e-05    6    1    5    5
 4.488798492229662e-08    6    1    6    1
 0.0001430776027474404    6    2    1    1
 1.004018367213224e-05    6    2    2    1
 0.0002361576152711171    6    2    2    2
 -1.527407846851049e-06    6    2    3    1
 -3.643064702463053e-05    6    2    3    2
 -0.0002187940284948557    6    2    3    3
 -4.277923268785789e-07    6    2    4    1
 1.102721037851595e-05    6    2    4    2
 -1.16122988184205e-05    6    2    4    3
 -0.0003172722972236347    6    2    4    4
 2.744784731175027e-07    6    2    5    1
 -3.16597982434762e-06    6    2    5    2
 7.284626277712822e-06    6    2    5    3
 -1.081055851552655e-05    6    2    5    4
 -0.0002338482921448282    6    2    5    5
 -1.400702722361494e-07    6    2    6    1
 1.027720501654641e-06    6    2    6    2
 -0.0001704735399555689    6    3    1    1
 2.688233012907824e-05    6    3    2    1
 -0.0005751019634329349    6    3    2    2
 1.26902482847593e-05    6    3    3    1
 -5.884554221888106e-05    6    3    3    2
 -0.000713608953882161    6    3    3    3
 -2.413430236768167e-06    6    3    4    1
 3.584107306257723e-06    6    3    4    2
 0.0001673121638309361    6    3    4    3
 0.001350484577395225    6    3    4    4
 -4.277923268786475e-07    6    3    5    1
 4.975184213402855e-06    6    3    5    2
 -6.124072344019898e-05    6    3    5    3
 7.737439895587008e-05    6    3    5    4
 0.001405337249094449    6    3    5    5
 5.353394039625333e-07    6    3    6    1
 -3.144128109885005e-06    6    3    6    2
 2.076731749816916e-05    6    3    6    3
 0.0002206111799803199    6    4    1    1
 -2.779245751133479e-05    6    4    2    1
 0.000669132867503155    6    4    2    2
 2.383077683316158e-05    6    4    3    1
 -0.0001456611064594669    6    4    3    2
 0.002338006365803115    6    4    3    3
 1.269024828475674e-05    6    4    4    1
 -8.157326878245132e-05    6    4    4    2
 0.0003634139487491112    6    4    4    3
 0.002053220960751871    6    4    4    4
 -1.527407846849877e-06    6    4    5    1
 4.93983294332119e-06    6    4    5    2
 2.460740349013839e-05    6    4    5    3
 -0.001017362022073643    6    4    5    4
 -0.006744389795204673    6    4    5    5
 -2.176917205651347e-06    6    4    6    1
 1.115666571749483e-05    6    4    6    2
 -6.191109657600714e-05    6    4    6    3
 0.0004556081528729953    6    4    6    4
 -0.0002574263141396283    6    5    1    1
 2.839804466319843e-05    6    5    2    1
 -0.0007983106105191981    6    5    2    2
 -2.779245751134777e-05    6    5    3    1
 0.0001634289620152926    6    5    3    2
 -0.00274547141999806    6    5    3    3
 2.68823301290838e-05    6    5    4    1
 -0.0001380982080389893    6    5    4    2
 0.000755686133820616    6    5    4    3
 -0.01082758971655079    6    5    4    4
 1.004018367212776e-05    6    5    5    1
 -6.721981202205449e-05    6    5    5    2
 0.0003945661892678516    6    5    5    3
 -0.00166966199335684    6    5    5    4
 -0.008732124650993515    6    5    5    5
 8.689181322163746e-06    6    5    6    1
 -3.948611604859464e-05    6    5    6    2
 0.0001833833444841803    6    5    6    3
 -0.001117169932658089    6    5    6    4
 0.01011039412599474    6    5    6    5
 0.1023746342854256    6    6    1    1
 -0.0002574263141396681    6    6    2    1
 0.129166548743282    6    6    2    2
 0.0002206111799804965    6    6    3    1
 -0.001319753903660313    6    6    3    2
 0.1710887759290892    6    6    3    3
 -0.0001704735399555358    6    6    4    1
 0.0007706666326011344    6    6    4    2
 -0.003687631905495376    6    6    4    3
 0.252601365395748    6    6    4    4
 0.0001430776027474556    6    6    5    1
 -0.0006242263489478431    6    6    5    2
 0.002548105008256904    6    6    5    3
 -0.01281093551553183    6    6    5    4
 0.4565261402537336    6    6    5    5
 -5.394133425449485e-05    6    6    6    1
 0.0002351891566958004    6    6    6    2
 -0.0007348212358711786    6    6    6    3
 0.002103896381122568    6    6    6    4
 -0.01185707811718483    6    6    6    5
 0.8310515989637827    6    6    6    6
 -1.497927149856866    1    1  0  0
 -0.2783645328870515    2    1  0  0
 -1.811225925787282    2    2  0  0
 0.06722650637239319    3    1  0  0
 -0.2936134925011685    3    2  0  0
 -1.931343091953888    3    3  0  0
 -0.01767051229689084    4    1  0  0
 0.07300313205769229    4    2  0  0
 -0.2938235831164007    4    3  0  0
 -1.931343091953886    4    4  0  0
 0.004448676965790202    5    1  0  0
 -0.01916554712801771    5    2  0  0
 0.07300313205769217    5    3  0  0
 -0.2936134925011675    5    4  0  0
 -1.81122592578728    5    5  0  0
 -0.001033276672076933    6    1  0  0
 0.004448676965790252    6    2  0  0
 -0.01767051229689059    6    3  0  0
 0.06722650637239529    6    4  0  0
 -0.2783645328870512    6    5  0  0
 -1.497927149856868    6    6  0  0
 0  0  0  0  0
