 &FCI NORB=   6,NELEC= 6,MS2=0,
  ORBSYM=1,1,1,1,1,1,
  ISYM=1,
 &END
 0.8310515989637816    1    1    1    1
 -0.01185707811718341    2    1    1    1
 0.01011039412599471    2    1    2    1
 0.456526140253733    2    2    1    1
 -0.008732124650992283    2    2    2    1
 0.9031524268472044    2    2    2    2
 0.002103896381122799    3    1    1    1
 -0.001117169932658094    3    1    2    1
 -0.00674438979520443    3    1    2    2
 0.0004556081528730017    3    1    3    1
 -0.01281093551553142    3    2    1    1
 -0.001669661993356873    3    2    2    1
 -0.01491855006024836    3    2    2    2
 -0.001017362022073668    3    2    3    1
 0.01131044978276489    3    2    3    2
 0.2526013653957472    3    3    1    1
 -0.01082758971655025    3    3    2    1
 0.4798983083066191    3    3    2    2
 0.002053220960752222    3    3    3    1
 -0.0147085382435686    3    3    3    2
 0.9078298616629974    3    3    3    3
 -0.0007348212358715494    4    1    1    1
 0.0001833833444841785    4    1    2    1
 0.001405337249094194    4    1    2    2
 -6.191109657600676e-05    4    1    3    1
 7.73743989558754e-05    4    1    3    2
 0.001350484577394983    4    1    3    3
 2.076731749817023e-05    4    1    4    1
 0.002548105008257019    4    2    1    1
 0.0003945661892678848    4    2    2    1
 0.002656636420807676    4    2    2    2
 2.460740349012955e-05    4    2    3    1
 -0.001176146806432476    4    2    3    2
 -0.006711921370963669    4    2    3    3
 -6.124072344020038e-05    4    2    4    1
 0.0005236413501435598    4    2    4    2
 -0.003687631905495202    4    3    1    1
 0.0007556861338206477    4    3    2    1
 -0.01394333541490284    4    3    2    2
 0.000363413948749079    4    3    3    1
 -0.001606165054078165    4    3    3    2
 -0.01504681128726579    4    3    3    3
 0.0001673121638309568    4    3    4    1
 -0.001170364713800947    4    3    4    2
 0.01138212606124546    4    3    4    3
 0.171088775929089    4    4    1    1
 -0.002745471419997701    4    4    2    1
 0.2611722322503522    4    4    2    2
 0.002338006365803259    4    4    3    1
 -0.01383078544442176    4    4    3    2
 0.4812485918033739    4    4    3    3
 -0.0007136089538824757    4    4    4    1
 0.002625564276119756    4    4    4    2
 -0.01504681128726612    4    4    4    3
 0.9078298616630013    4    4    4    4
 0.000235189156695957    5    1    1    1
 -3.948611604858974e-05    5    1    2    1
 -0.0002338482921447317    5    1    2    2
 1.115666571749375e-05    5    1    3    1
 -1.081055851552677e-05    5    1    3    2
 -0.0003172722972235545    5    1    3    3
 -3.144128109885215e-06    5    1    4    1
 7.284626277713651e-06    5    1    4    2
 -1.161229881842589e-05    5    1    4    3
 -0.0002187940284947566    5    1    4    4
 1.02772050165483e-06    5    1    5    1
 -0.0006242263489476789    5    2    1    1
 -6.721981202207443e-05    5    2    2    1
 -0.0008614766187097932    5    2    2    2
 4.939832943324856e-06    5    2    3    1
 0.000188734062506625    5    2    3    2
 0.001420700337994355    5    2    3    3
 4.975184213403172e-06    5    2    4    1
 -6.921706704241545e-05    5    2    4    2
 9.235914841935316e-05    5    2    4    3
 0.001420700337994354    5    2    4    4
 -3.165979824348147e-06    5    2    5    1
 2.421725515718629e-05    5    2    5    2
 0.000770666632601079    5    3    1    1
 -0.0001380982080389757    5    3    2    1
 0.002737058150031073    5    3    2    2
 -8.157326878245594e-05    5    3    3    1
 0.0003891966617683225    5    3    3    2
 0.002625564276119098    5    3    3    3
 3.584107306254673e-06    5    3    4    1
 3.364444664797381e-05    5    3    4    2
 -0.001170364713800922    5    3    4    3
 -0.006711921370964078    5    3    4    4
 1.102721037851825e-05    5    3    5    1
 -6.921706704241719e-05    5    3    5    2
 0.0005236413501435609    5    3    5    3
 -0.001319753903660334    5    4    1    1
 0.0001634289620152839    5    4    2    1
 -0.003912297756495149    5    4    2    2
 -0.0001456611064594712    5    4    3    1
 0.0008882995333617644    5    4    3    2
 -0.01383078544442237    5    4    3    3
 -5.884554221886006e-05    5    4    4    1
 0.0003891966617682774    5    4    4    2
 -0.001606165054078192    5    4    4    3
 -0.01470853824356925    5    4    4    4
 -3.643064702464072e-05    5    4    5    1
 0.000188734062506638    5    4    5    2
 -0.001176146806432463    5    4    5    3
 0.01131044978276479    5    4    5    4
 0.1291665487432818    5    5    1    1
 -0.00079831061051896    5    5    2    1
 0.1748872350978665    5    5    2    2
 0.0006691328675032596    5    5    3    1
 -0.003912297756494834    5    5    3    2
 0.2611722322503515    5    5    3    3
 -0.0005751019634331295    5    5    4    1
 0.002737058150031432    5    5    4    2
 -0.01394333541490283    5    5    4    3
 0.4798983083066193    5    5    4    4
 0.0002361576152712641    5    5    5    1
 -0.0008614766187097448    5    5    5    2
 0.002656636420807185    5    5    5    3
 -0.01491855006024906    5    5    5    4
 0.9031524268472038    5    5    5    5
 -5.394133425424995e-05    6    1    1    1
 8.689181322160328e-06    6    1    2    1
 3.615878487395562e-05    6    1    2    2
 -2.176917205650706e-06    6    1    3    1
 2.020342794860962e-06    6    1    3    2
 5.346334377077374e-05    6    1    3    3
 5.353394039623163e-07    6    1    4    1
 -9.684255311038624e-07    6    1    4    2
 9.333498764823477e-07    6    1    4    3
 5.346334377077212e-05    6    1    4    4
 -1.400702722360559e-07    6    1    5    1
 3.2183261446495e-07    6    1    5    2
 -9.684255311039812e-07    6    1    5    3
 2.020342794861596e-06    6    1    5    4
 3.615878487394796e-05    6    1    5    5
 4.488798492224325e-08    6    1    6    1
 0.000143077602747481    6    2    1    1
 1.004018367213599e-05    6    2    2    1
 0.0002361576152711849    6    2    2    2
 -1.527407846851016e-06    6    2    3    1
 -3.643064702463865e-05    6    2    3    2
 -0.0002187940284948    6    2    3    3
 -4.277923268785395e-07    6    2    4    1
 1.102721037851744e-05    6    2    4    2
 -1.161229881842194e-05    6    2    4    3
 -0.0003172722972235785    6    2    4    4
 2.744784731175485e-07    6    2    5    1
 -3.165979824348088e-06    6    2    5    2
 7.28462627771353e-06    6    2    5    3
 -1.081055851552975e-05    6    2    5    4
 -0.0002338482921447543    6    2    5    5
 -1.400702722360607e-07    6    2    6    1
 1.027720501654787e-06    6    2    6    2
 -0.0001704735399557607    6    3    1    1
 2.688233012908285e-05    6    3    2    1
 -0.0005751019634332579    6    3    2    2
 1.2690248284758e-05    6    3    3    1
 -5.884554221887147e-05    6    3    3    2
 -0.000713608953882719    6    3    3    3
 -2.41343023676894e-06    6    3    4    1
 3.584107306259254e-06    6    3    4    2
 0.0001673121638309482    6    3    4    3
 0.001350484577394821    6    3    4    4
 -4.277923268785365e-07    6    3    5    1
 4.975184213403333e-06    6    3    5    2
 -6.124072344020225e-05    6    3    5    3
 7.737439895588445e-05    6    3    5    4
 0.001405337249094023    6    3    5    5
 5.353394039623513e-07    6    3    6    1
 -3.144128109885173e-06    6    3    6    2
 2.076731749817085e-05    6    3    6    3
 0.0002206111799803513    6    4    1    1
 -2.779245751133251e-05    6    4    2    1
 0.0006691328675031896    6    4    2    2
 2.38307768331588e-05    6    4    3    1
 -0.0001456611064594573    6    4    3    2
 0.00233800636580316    6    4    3    3
 1.26902482847558e-05    6    4    4    1
 -8.157326878245106e-05    6    4    4    2
 0.0003634139487491095    6    4    4    3
 0.002053220960751979    6    4    4    4
 -1.527407846850441e-06    6    4    5    1
 4.93983294331934e-06    6    4    5    2
 2.460740349013584e-05    6    4    5    3
 -0.001017362022073635    6    4    5    4
 -0.006744389795204588    6    4    5    5
 -2.176917205651006e-06    6    4    6    1
 1.115666571749479e-05    6    4    6    2
 -6.191109657600834e-05    6    4    6    3
 0.0004556081528729919    6    4    6    4
 -0.0002574263141396108    6    5    1    1
 2.839804466319819e-05    6    5    2    1
 -0.0007983106105191656    6    5    2    2
 -2.779245751134843e-05    6    5    3    1
 0.0001634289620152917    6    5    3    2
 -0.002745471419997991    6    5    3    3
 2.688233012908698e-05    6    5    4    1
 -0.0001380982080389872    6    5    4    2
 0.0007556861338205793    6    5    4    3
 -0.01082758971655066    6    5    4    4
 1.004018367213073e-05    6    5    5    1
 -6.721981202206142e-05    6    5    5    2
 0.0003945661892678664    6    5    5    3
 -0.001669661993356881    6    5    5    4
 -0.008732124650993303    6    5    5    5
 8.689181322161918e-06    6    5    6    1
 -3.948611604859237e-05    6    5    6    2
 0.0001833833444841826    6    5    6    3
 -0.001117169932658083    6    5    6    4
 0.01011039412599474    6    5    6    5
 0.1023746342854257    6    6    1    1
 -0.0002574263141394456    6    6    2    1
 0.1291665487432822    6    6    2    2
 0.0002206111799804185    6    6    3    1
 -0.001319753903660223    6    6    3    2
 0.171088775929089    6    6    3    3
 -0.0001704735399556839    6    6    4    1
 0.000770666632601294    6    6    4    2
 -0.003687631905495229    6    6    4    3
 0.2526013653957485    6    6    4    4
 0.0001430776027475221    6    6    5    1
 -0.0006242263489476662    6    6    5    2
 0.002548105008256765    6    6    5    3
 -0.01281093551553192    6    6    5    4
 0.4565261402537344    6    6    5    5
 -5.394133425426013e-05    6    6    6    1
 0.0002351891566959309    6    6    6    2
 -0.0007348212358718065    6    6    6    3
 0.002103896381122763    6    6    6    4
 -0.01185707811718475    6    6    6    5
 0.8310515989637849    6    6    6    6
 -1.497927149856867    1    1  0  0
 -0.2783645328870548    2    1  0  0
 -1.811225925787283    2    2  0  0
 0.06722650637239405    3    1  0  0
 -0.2936134925011692    3    2  0  0
 -1.931343091953883    3    3  0  0
 -0.01767051229688935    4    1  0  0
 0.07300313205769021    4    2  0  0
 -0.2938235831164021    4    3  0  0
 -1.931343091953888    4    4  0  0
 0.004448676965789651    5    1  0  0
 -0.01916554712801878    5    2  0  0
 0.07300313205769295    5    3  0  0
 -0.2936134925011672    5    4  0  0
 -1.811225925787281    5    5  0  0
 -0.001033276672077864    6    1  0  0
 0.004448676965789922    6    2  0  0
 -0.01767051229688862    6    3  0  0
 0.06722650637239518    6    4  0  0
 -0.2783645328870521    6    5  0  0
 -1.49792714985687    6    6  0  0
 4.603841735003999  0  0  0  0
